ITEM: TIMESTEP
0
ITEM: NUMBER OF ATOMS
7
ITEM: BOX BOUNDS pp pp
-9.865 9.865
-9.865 9.865
ITEM: ATOMS id mol type q x y
498 232 2 0.41 -5.36358 -6.94709
755 232 2 0.41 -5.58338 -6.41413
310 104 1 -0.82 -8.41148 -6.20465
345 104 2 0.41 -7.85454 -5.42663
124 42 1 -0.82 -5.91969 -8.33548
38 104 2 0.41 -8.35489 -6.92083
725 192 2 0.41 -9.17871 -9.02748
ITEM: TIMESTEP
10
ITEM: NUMBER OF ATOMS
3
ITEM: BOX BOUNDS pp pp pp
-9.865 9.865
-9.865 9.865
-9.865 9.865
ITEM: ATOMS id mol type q x y z
498 232 2 0.41 -5.64884 -7.01234 -6.15501
755 232 2 0.41 -5.77319 -5.87381 -7.41439
310 104 1 -0.82 -8.32871 -6.12215 -7.21965
ITEM: TIMESTEP
30
ITEM: NUMBER OF ATOMS
4
ITEM: BOX BOUNDS pp pp pp
-9.865 9.865
-9.865 9.865
-9.865 9.865
ITEM: ATOMS id mol type q x y z
498 232 2 0.41 -5.70744 -6.94549 -6.12611
755 232 2 0.41 -5.74208 -5.71977 -7.28558
310 104 1 -0.82 -8.3015 -6.06382 -7.1936
345 104 2 0.41 -8.16063 -5.28099 -6.4818
